REMARK  Name = /blue/lic/huangzihang/raytmp/elion_pdb2pdbqt_em8rwm_0/Elion_iag933.pdb
REMARK  9 active torsions:
REMARK  status: ('A' for Active; 'I' for Inactive)
REMARK    1  A    between atoms: C7_9  and  C8_10
REMARK    2  A    between atoms: C7_9  and  C14_16
REMARK    3  A    between atoms: C18_22  and  C19_23
REMARK    4  A    between atoms: C20_24  and  C21_25
REMARK    5  A    between atoms: N2_26  and  C22_27
REMARK    6  A    between atoms: C24_31  and  O3_32
REMARK    7  A    between atoms: O3_32  and  C25_33
REMARK    8  A    between atoms: C25_33  and  C26_34
REMARK    9  A    between atoms: C26_34  and  O4_35
REMARK                            x       y       z     vdW  Elec       q    Type
REMARK                         _______ _______ _______ _____ _____    ______ ____
ROOT
ATOM      1 CL1  UNK   900     -23.081   2.672  25.251  0.00  0.00    -0.080 Cl
ATOM      2  C1  UNK   900     -23.189   1.799  26.739  0.00  0.00    +0.084 A 
ATOM      3  C2  UNK   900     -22.015   1.587  27.497  0.00  0.00    +0.146 A 
ATOM      4  F1  UNK   900     -20.838   2.115  27.090  0.00  0.00    -0.204 F 
ATOM      5  C3  UNK   900     -22.057   0.826  28.679  0.00  0.00    +0.085 A 
ATOM      6  C4  UNK   900     -23.278   0.252  29.063  0.00  0.00    +0.128 A 
ATOM      7  C5  UNK   900     -24.433   0.510  28.353  0.00  0.00    +0.008 A 
ATOM      8  C6  UNK   900     -25.571  -0.176  29.034  0.00  0.00    +0.090 C 
ATOM      9  C7  UNK   900     -24.855  -1.012  30.143  0.00  0.00    +0.127 C 
ATOM     10  O1  UNK   900     -23.477  -0.578  30.128  0.00  0.00    -0.482 OA
ATOM     11  C18 UNK   900     -24.440   1.302  27.184  0.00  0.00    +0.014 A 
ENDROOT
BRANCH   9  12
ATOM     12  C14 UNK   900     -25.387  -0.679  31.571  0.00  0.00    -0.022 C 
ATOM     13  C15 UNK   900     -25.189   0.773  32.028  0.00  0.00    -0.013 C 
ATOM     14  C16 UNK   900     -25.336   0.684  33.544  0.00  0.00    -0.020 C 
ATOM     15  C17 UNK   900     -24.829  -0.715  33.905  0.00  0.00    -0.082 C 
ATOM     16  N1  UNK   900     -24.758  -1.481  32.646  0.00  0.00    +0.384 N 
ATOM     17  H16 UNK   900     -25.215  -2.384  32.785  0.00  0.00    -0.085 HD
ATOM     18  H27 UNK   900     -23.760  -1.624  32.450  0.00  0.00    -0.085 HD
ENDBRANCH   9  12
BRANCH  11  19
ATOM     19  C19 UNK   900     -25.688   1.614  26.461  0.00  0.00    +0.038 A 
ATOM     20  C20 UNK   900     -26.250   2.920  26.395  0.00  0.00    +0.065 A 
ATOM     21  C23 UNK   900     -27.438   3.091  25.645  0.00  0.00    +0.128 A 
ATOM     22  N3  UNK   900     -28.075   2.089  25.003  0.00  0.00    -0.218 NA
ATOM     23  C24 UNK   900     -27.543   0.849  25.079  0.00  0.00    +0.252 A 
ATOM     24  C27 UNK   900     -26.354   0.576  25.777  0.00  0.00    +0.193 A 
ATOM     25  F2  UNK   900     -25.860  -0.681  25.795  0.00  0.00    -0.199 F 
BRANCH  20  26
ATOM     26  C21 UNK   900     -25.642   4.093  27.123  0.00  0.00    +0.246 C 
ATOM     27  N2  UNK   900     -25.614   5.252  26.449  0.00  0.00    -0.314 N 
ATOM     28  C22 UNK   900     -25.026   6.479  26.963  0.00  0.00    +0.128 C 
ATOM     29  O2  UNK   900     -25.143   3.966  28.243  0.00  0.00    -0.270 OA
ATOM     30  H17 UNK   900     -25.981   5.290  25.504  0.00  0.00    +0.149 HD
ENDBRANCH  20  26
BRANCH  23  31
ATOM     31  O3  UNK   900     -28.193  -0.208  24.477  0.00  0.00    -0.472 OA
BRANCH  31  32
ATOM     32  C25 UNK   900     -29.460   0.005  23.866  0.00  0.00    +0.258 C 
BRANCH  32  33
ATOM     33  C26 UNK   900     -30.065  -1.377  23.573  0.00  0.00    +0.196 C 
BRANCH  33  34
ATOM     34  O4  UNK   900     -30.729  -1.878  24.721  0.00  0.00    -0.392 OA
ATOM     35  H26 UNK   900     -31.567  -1.442  24.789  0.00  0.00    +0.210 HD
ENDBRANCH  33  34
ENDBRANCH  32  33
ENDBRANCH  31  32
ENDBRANCH  23  31
ENDBRANCH  11  19
BRANCH   9  36
ATOM     36  C8  UNK   900     -24.973  -2.505  29.788  0.00  0.00    -0.006 A 
ATOM     37  C9  UNK   900     -23.906  -3.173  29.146  0.00  0.00    +0.007 A 
ATOM     38  C10 UNK   900     -23.989  -4.549  28.853  0.00  0.00    +0.000 A 
ATOM     39  C11 UNK   900     -25.137  -5.280  29.205  0.00  0.00    +0.000 A 
ATOM     40  C12 UNK   900     -26.232  -4.611  29.784  0.00  0.00    +0.000 A 
ATOM     41  C13 UNK   900     -26.155  -3.232  30.065  0.00  0.00    +0.007 A 
ENDBRANCH   9  36
TORSDOF 8
