REMARK  Name = /blue/lic/huangzihang/repos/IAG933/IAG933.pdb
REMARK  9 active torsions:
REMARK  status: ('A' for Active; 'I' for Inactive)
REMARK    1  A    between atoms: C_9  and  C_10
REMARK    2  A    between atoms: C_9  and  C_16
REMARK    3  A    between atoms: C_22  and  C_23
REMARK    4  A    between atoms: C_24  and  C_25
REMARK    5  A    between atoms: N_26  and  C_27
REMARK    6  A    between atoms: C_31  and  O_32
REMARK    7  A    between atoms: O_32  and  C_33
REMARK    8  A    between atoms: C_33  and  C_34
REMARK    9  A    between atoms: C_34  and  O_35
REMARK                            x       y       z     vdW  Elec       q    Type
REMARK                         _______ _______ _______ _____ _____    ______ ____
ROOT
ATOM      1 CL   UNL A   1     -23.081   2.672  25.251  0.00  0.00    -0.080 Cl
ATOM      2  C   UNL A   1     -23.189   1.799  26.739  0.00  0.00    +0.084 A 
ATOM      3  C   UNL A   1     -22.015   1.587  27.497  0.00  0.00    +0.146 A 
ATOM      4  F   UNL A   1     -20.838   2.115  27.090  0.00  0.00    -0.204 F 
ATOM      5  C   UNL A   1     -22.057   0.826  28.679  0.00  0.00    +0.017 A 
ATOM      6  C   UNL A   1     -23.278   0.252  29.063  0.00  0.00    +0.129 A 
ATOM      7  C   UNL A   1     -24.433   0.510  28.353  0.00  0.00    +0.008 A 
ATOM      8  C   UNL A   1     -25.571  -0.176  29.034  0.00  0.00    +0.026 C 
ATOM      9  C   UNL A   1     -24.855  -1.012  30.143  0.00  0.00    +0.181 C 
ATOM     10  O   UNL A   1     -23.477  -0.578  30.128  0.00  0.00    -0.475 OA
ATOM     11  C   UNL A   1     -24.440   1.302  27.184  0.00  0.00    +0.014 A 
ATOM     12  H   UNL A   1     -21.159   0.652  29.253  0.00  0.00    +0.068 HD
ATOM     13  H   UNL A   1     -26.256   0.570  29.435  0.00  0.00    +0.036 HD
ATOM     14  H   UNL A   1     -26.124  -0.798  28.330  0.00  0.00    +0.036 HD
ENDROOT
BRANCH   9  15
ATOM     15  C   UNL A   1     -25.387  -0.679  31.571  0.00  0.00    +0.023 C 
ATOM     16  C   UNL A   1     -25.189   0.773  32.028  0.00  0.00    -0.001 C 
ATOM     17  C   UNL A   1     -25.336   0.684  33.544  0.00  0.00    -0.007 C 
ATOM     18  C   UNL A   1     -24.829  -0.715  33.905  0.00  0.00    -0.033 C 
ATOM     19  N   UNL A   1     -24.758  -1.481  32.646  0.00  0.00    +0.232 N 
ATOM     20  H   UNL A   1     -26.459  -0.884  31.607  0.00  0.00    +0.089 HD
ATOM     21  H   UNL A   1     -24.189   1.128  31.783  0.00  0.00    +0.032 HD
ATOM     22  H   UNL A   1     -25.901   1.474  31.589  0.00  0.00    +0.032 HD
ATOM     23  H   UNL A   1     -24.781   1.464  34.067  0.00  0.00    +0.032 HD
ATOM     24  H   UNL A   1     -26.388   0.778  33.817  0.00  0.00    +0.032 HD
ATOM     25  H   UNL A   1     -23.845  -0.672  34.368  0.00  0.00    +0.081 HD
ATOM     26  H   UNL A   1     -25.506  -1.203  34.605  0.00  0.00    +0.081 HD
ATOM     27  H   UNL A   1     -25.215  -2.384  32.785  0.00  0.00    +0.202 HD
ATOM     28  H   UNL A   1     -23.760  -1.624  32.450  0.00  0.00    +0.202 HD
ENDBRANCH   9  15
BRANCH   9  29
ATOM     29  C   UNL A   1     -24.973  -2.505  29.788  0.00  0.00    +0.002 A 
ATOM     30  C   UNL A   1     -23.906  -3.173  29.146  0.00  0.00    -0.055 A 
ATOM     31  C   UNL A   1     -23.989  -4.549  28.853  0.00  0.00    -0.061 A 
ATOM     32  C   UNL A   1     -25.137  -5.280  29.205  0.00  0.00    -0.062 A 
ATOM     33  C   UNL A   1     -26.232  -4.611  29.784  0.00  0.00    -0.061 A 
ATOM     34  C   UNL A   1     -26.155  -3.232  30.065  0.00  0.00    -0.055 A 
ATOM     35  H   UNL A   1     -23.000  -2.644  28.891  0.00  0.00    +0.062 HD
ATOM     36  H   UNL A   1     -23.154  -5.049  28.383  0.00  0.00    +0.062 HD
ATOM     37  H   UNL A   1     -25.171  -6.342  29.022  0.00  0.00    +0.062 HD
ATOM     38  H   UNL A   1     -27.120  -5.165  30.043  0.00  0.00    +0.062 HD
ATOM     39  H   UNL A   1     -27.005  -2.757  30.531  0.00  0.00    +0.062 HD
ENDBRANCH   9  29
BRANCH  11  40
ATOM     40  C   UNL A   1     -25.688   1.614  26.461  0.00  0.00    +0.038 A 
ATOM     41  C   UNL A   1     -26.250   2.920  26.395  0.00  0.00    +0.066 A 
ATOM     42  C   UNL A   1     -27.438   3.091  25.645  0.00  0.00    +0.044 A 
ATOM     43  N   UNL A   1     -28.075   2.089  25.003  0.00  0.00    -0.218 NA
ATOM     44  C   UNL A   1     -27.543   0.849  25.079  0.00  0.00    +0.252 A 
ATOM     45  C   UNL A   1     -26.354   0.576  25.777  0.00  0.00    +0.193 A 
ATOM     46  F   UNL A   1     -25.860  -0.681  25.795  0.00  0.00    -0.199 F 
ATOM     47  H   UNL A   1     -27.904   4.062  25.566  0.00  0.00    +0.084 HD
BRANCH  41  48
ATOM     48  C   UNL A   1     -25.642   4.093  27.123  0.00  0.00    +0.246 C 
ATOM     49  N   UNL A   1     -25.614   5.252  26.449  0.00  0.00    -0.314 N 
ATOM     50  O   UNL A   1     -25.143   3.966  28.243  0.00  0.00    -0.270 OA
ATOM     51  H   UNL A   1     -25.981   5.290  25.504  0.00  0.00    +0.149 HD
BRANCH  49  52
ATOM     52  C   UNL A   1     -25.026   6.479  26.963  0.00  0.00    +0.000 C 
ATOM     53  H   UNL A   1     -25.141   7.292  26.242  0.00  0.00    +0.043 HD
ATOM     54  H   UNL A   1     -25.507   6.782  27.896  0.00  0.00    +0.043 HD
ATOM     55  H   UNL A   1     -23.960   6.339  27.149  0.00  0.00    +0.043 HD
ENDBRANCH  49  52
ENDBRANCH  41  48
BRANCH  44  56
ATOM     56  O   UNL A   1     -28.193  -0.208  24.477  0.00  0.00    -0.472 OA
BRANCH  56  57
ATOM     57  C   UNL A   1     -29.460   0.005  23.866  0.00  0.00    +0.114 C 
ATOM     58  H   UNL A   1     -29.303   0.541  22.929  0.00  0.00    +0.072 HD
ATOM     59  H   UNL A   1     -30.137   0.600  24.484  0.00  0.00    +0.072 HD
BRANCH  57  60
ATOM     60  C   UNL A   1     -30.065  -1.377  23.573  0.00  0.00    +0.078 C 
ATOM     61  H   UNL A   1     -29.299  -2.077  23.235  0.00  0.00    +0.059 HD
ATOM     62  H   UNL A   1     -30.802  -1.306  22.772  0.00  0.00    +0.059 HD
BRANCH  60  63
ATOM     63  O   UNL A   1     -30.729  -1.878  24.721  0.00  0.00    -0.392 OA
ATOM     64  H   UNL A   1     -31.567  -1.442  24.789  0.00  0.00    +0.209 HD
ENDBRANCH  60  63
ENDBRANCH  57  60
ENDBRANCH  56  57
ENDBRANCH  44  56
ENDBRANCH  11  40
TORSDOF 9
